ITEM: TIMESTEP
0
ITEM: NUMBER OF ATOMS
860
ITEM: BOX BOUNDS ff ff ff
-5.89230e+01 5.89230e+01
-5.89230e+01 5.89230e+01
-5.89230e+01 5.89230e+01
ITEM: ATOMS id mol type x y z c_a c_b c_c
1 1 1 -46.21620 24.74240 3.86320 7 8 5
2 1 1 -45.82370 25.52740 0.59959 7 8 5
3 1 1 -44.28350 25.15280 -2.28826 7 8 5
4 1 1 -42.37170 24.72210 -5.14188 7 8 5
5 1 1 -40.55420 24.30730 -8.19037 7 8 5
6 1 1 -44.45940 27.60430 3.06910 7 8 5
7 1 1 -43.13690 27.50400 -0.04625 7 8 5
8 1 1 -42.44100 27.71340 -3.36045 7 8 5
9 1 1 -41.07450 27.44110 -6.43355 7 8 5
10 1 1 -48.46090 23.59680 1.64942 7 8 5
11 1 1 -43.37680 22.39670 -7.32578 7 8 5
12 1 1 -42.68240 30.07030 2.10604 7 8 5
13 1 1 -38.59620 29.36400 -6.66564 7 8 5
14 1 2 -42.32320 30.90730 -5.46299 7 8 5
15 1 3 -38.87410 20.90240 -8.87015 7 8 5
16 1 4 -38.16840 16.81250 -10.07570 7 8 5
17 1 4 -40.20900 14.23420 -12.75770 7 8 5
18 1 3 -40.36330 12.59600 -16.67220 7 8 5
19 1 3 -42.42620 18.51800 -7.32943 7 8 5
20 1 5 -40.40790 29.69810 5.12073 7 8 5
21 2 1 -27.30900 -45.52350 44.43390 2 9 6
22 2 1 -28.21020 -43.56510 41.75220 2 9 6
23 2 1 -28.81670 -43.27820 38.38140 2 9 6
24 2 1 -29.56130 -42.33250 35.35490 2 9 6
25 2 1 -30.26010 -41.04690 32.46400 2 9 6
26 2 1 -30.61200 -45.38630 43.39360 2 9 6
27 2 1 -30.57890 -45.43730 40.07830 2 9 6
28 2 1 -31.66580 -44.43840 36.91020 2 9 6
29 2 1 -32.44900 -43.28610 33.99900 2 9 6
30 2 1 -24.95750 -43.42580 43.32330 2 9 6
31 2 1 -26.99410 -41.10900 33.55310 2 9 6
32 2 1 -32.66620 -47.55030 41.93700 2 9 6
33 2 1 -34.98300 -43.77790 31.82360 2 9 6
34 2 2 -35.06700 -45.61760 35.71150 2 9 6
35 2 3 -28.26750 -38.16850 30.54010 2 9 6
36 2 4 -29.87690 -35.32680 27.86570 2 9 6
37 2 4 -28.41420 -32.05240 25.27080 2 9 6
38 2 3 -28.89850 -28.31140 23.37900 2 9 6
39 2 3 -24.90440 -41.37050 30.50820 2 9 6
40 2 5 -36.24810 -48.06310 42.68680 2 9 6
41 3 1 -15.84840 -14.75120 -55.57440 1 1 7
42 3 1 -15.46870 -13.42420 -58.72380 1 1 7
43 3 1 -14.98920 -11.30630 56.38250 1 1 7
44 3 1 -14.01700 -9.79556 53.77450 1 1 7
45 3 1 -14.32660 -9.30787 50.39750 1 1 7
46 3 1 -12.77220 -14.24260 -56.80390 1 1 7
47 3 1 -12.50170 -13.32800 57.75160 1 1 7
48 3 1 -12.40050 -12.44700 54.51400 1 1 7
49 3 1 -12.15890 -11.51360 51.17830 1 1 7
50 3 1 -18.72280 -13.99840 -57.21190 1 1 7
51 3 1 -15.90210 -7.35778 52.80240 1 1 7
52 3 1 -9.87808 -14.55290 -58.32210 1 1 7
53 3 1 -10.05240 -11.54680 48.49730 1 1 7
54 3 2 -9.07835 -12.76050 52.56950 1 1 7
55 3 3 -17.14140 -9.86407 48.04710 1 1 7
56 3 4 -21.04640 -7.96259 48.34460 1 1 7
57 3 4 -25.07240 -6.72166 47.47930 1 1 7
58 3 3 -28.60590 -9.39279 47.70930 1 1 7
59 3 3 -19.76180 -6.88045 52.63050 1 1 7
60 3 5 -8.51377 -12.53120 -55.65020 1 1 7
61 4 1 19.17900 -57.66410 46.59530 8 10 8
62 4 1 21.30110 -55.53200 44.69190 8 10 8
63 4 1 22.51130 -53.53250 42.15060 8 10 8
64 4 1 24.04530 -51.63850 39.83770 8 10 8
65 4 1 25.63010 -49.92940 37.53340 8 10 8
66 4 1 18.48710 -54.32820 46.16800 8 10 8
67 4 1 20.16040 -52.44720 44.01410 8 10 8
68 4 1 21.68620 -50.42030 41.76950 8 10 8
69 4 1 23.07040 -48.47690 39.21880 8 10 8
70 4 1 20.93250 58.72120 44.08590 8 10 8
71 4 1 25.89740 -53.17460 37.50500 8 10 8
72 4 1 17.82920 -50.97090 46.49150 8 10 8
73 4 1 22.87000 -45.08240 38.27260 8 10 8
74 4 2 20.27720 -46.83450 41.13900 8 10 8
75 4 3 29.19930 -49.74730 36.79090 8 10 8
76 4 4 32.28240 -48.03590 34.45930 8 10 8
77 4 4 36.25120 -48.14680 32.85720 8 10 8
78 4 3 39.00720 -48.46630 29.63850 8 10 8
79 4 3 28.45030 -55.06230 35.35110 8 10 8
80 4 5 14.51870 -50.98330 47.64760 8 10 8
81 5 1 12.95330 -39.06240 39.69520 9 11 9
82 5 1 11.29880 -41.73150 40.55680 9 11 9
83 5 1 9.13751 -44.15600 40.32310 9 11 9
84 5 1 6.90084 -46.68110 40.03460 9 11 9
85 5 1 5.04131 -49.32240 40.17620 9 11 9
86 5 1 10.45730 -39.16600 42.06550 9 11 9
87 5 1 8.20607 -41.20780 41.42760 9 11 9
88 5 1 5.93107 -43.68180 41.06830 9 11 9
89 5 1 3.97587 -46.42830 41.47520 9 11 9
90 5 1 14.12760 -42.05700 39.38540 9 11 9
91 5 1 7.65369 -49.37520 38.10390 9 11 9
92 5 1 7.10742 -38.60610 43.14140 9 11 9
93 5 1 1.64502 -47.04830 43.82200 9 11 9
94 5 2 2.47681 -43.07200 42.82540 9 11 9
95 5 3 6.02188 -52.96800 40.69010 9 11 9
96 5 4 9.15378 -55.40620 42.47620 9 11 9
97 5 4 10.53240 -57.48900 46.05550 9 11 9
98 5 3 11.75640 -58.59140 50.20910 9 11 9
99 5 3 7.24058 -52.29920 35.97470 9 11 9
100 5 5 7.90837 -36.10230 45.78110 9 11 9
101 6 1 -27.15560 -30.75890 8.01180 2 12 10
102 6 1 -29.41880 -28.41720 9.04962 2 12 10
103 6 1 -32.18650 -26.43250 9.71535 2 12 10
104 6 1 -34.51550 -23.95650 9.93921 2 12 10
105 6 1 -37.11560 -21.91210 10.57800 2 12 10
106 6 1 -26.89490 -27.39660 7.27836 2 12 10
107 6 1 -29.52040 -25.54120 7.38601 2 12 10
108 6 1 -32.33590 -23.92690 7.61533 2 12 10
109 6 1 -34.62010 -21.19550 8.17822 2 12 10
110 6 1 -28.90260 -30.89030 11.00400 2 12 10
111 6 1 -36.68150 -24.68000 12.45480 2 12 10
112 6 1 -26.73690 -24.67580 5.52667 2 12 10
113 6 1 -34.90820 -18.28700 7.35271 2 12 10
114 6 2 -32.13040 -20.59340 5.25555 2 12 10
115 6 3 -40.01450 -24.30570 11.71450 2 12 10
116 6 4 -43.89820 -24.79960 13.47190 2 12 10
117 6 4 -48.07260 -23.72620 13.89260 2 12 10
118 6 3 -51.50420 -22.03040 12.09940 2 12 10
119 6 3 -37.10050 -24.03250 16.18310 2 12 10
120 6 5 -24.46770 -25.24580 2.58079 2 12 10
121 7 1 33.01550 -19.92130 -39.04600 3 2 11
122 7 1 36.34550 -20.49380 -38.80860 3 2 11
123 7 1 39.58590 -21.10120 -39.40660 3 2 11
124 7 1 42.76280 -21.46980 -39.56320 3 2 11
125 7 1 45.98510 -21.45370 -39.95990 3 2 11
126 7 1 34.21850 -22.90890 -39.27080 3 2 11
127 7 1 37.64480 -23.58910 -38.96470 3 2 11
128 7 1 41.11380 -24.30100 -38.80820 3 2 11
129 7 1 44.47090 -24.33980 -39.70410 3 2 11
130 7 1 35.22230 -17.31960 -39.61380 3 2 11
131 7 1 44.47790 -18.79660 -40.63770 3 2 11
132 7 1 35.10410 -26.02240 -38.39950 3 2 11
133 7 1 45.96570 -27.30610 -40.93210 3 2 11
134 7 2 42.26920 -27.77260 -39.22290 3 2 11
135 7 3 49.49650 -20.09130 -40.63410 3 2 11
136 7 4 53.68930 -20.19870 -42.16710 3 2 11
137 7 4 55.45500 -21.20900 -45.93340 3 2 11
138 7 3 58.43900 -21.90040 -48.95090 3 2 11
139 7 3 46.82600 -16.62340 -38.23000 3 2 11
140 7 5 34.20440 -28.53370 -40.64410 3 2 11
141 8 1 56.98940 -14.98920 13.64600 10 13 12
142 8 1 55.33810 -12.27360 12.48090 10 13 12
143 8 1 53.15100 -11.14630 10.14320 10 13 12
144 8 1 51.76570 -8.83787 8.18827 10 13 12
145 8 1 49.52330 -7.02131 6.26676 10 13 12
146 8 1 54.14720 -13.61630 15.08960 10 13 12
147 8 1 52.45360 -11.31330 13.34090 10 13 12
148 8 1 50.62980 -9.28961 11.51850 10 13 12
149 8 1 49.19810 -6.82393 9.61224 10 13 12
150 8 1 57.98490 -13.45860 10.91020 10 13 12
151 8 1 52.63130 -7.84217 5.24937 10 13 12
152 8 1 51.41340 -12.20270 16.32390 10 13 12
153 8 1 47.49200 -3.97709 10.53620 10 13 12
154 8 2 49.02680 -6.54355 13.35820 10 13 12
155 8 3 50.34660 -10.64750 6.01759 10 13 12
156 8 4 51.73270 -14.37650 7.84262 10 13 12
157 8 4 53.64910 -16.51510 10.76000 10 13 12
158 8 3 53.36000 -18.59500 14.46930 10 13 12
159 8 3 52.48620 -4.66841 2.71457 10 13 12
160 8 5 51.52150 -13.14260 19.73860 10 13 12
161 9 1 -27.59020 9.87971 -8.46080 4 3 1
162 9 1 -25.34510 12.33460 -7.69892 4 3 1
163 9 1 -23.06060 14.67380 -7.34969 4 3 1
164 9 1 -20.84950 17.27570 -6.57480 4 3 1
165 9 1 -19.00750 20.04480 -5.86759 4 3 1
166 9 1 -27.10100 12.34270 -10.63130 4 3 1
167 9 1 -25.23290 15.09250 -9.75901 4 3 1
168 9 1 -22.78400 17.33580 -9.17998 4 3 1
169 9 1 -21.16970 20.02450 -8.37462 4 3 1
170 9 1 -25.69560 9.78983 -5.58723 4 3 1
171 9 1 -19.58090 17.56020 -3.57274 4 3 1
172 9 1 -26.71920 14.68900 -12.99240 4 3 1
173 9 1 -20.10520 22.82100 -9.63954 4 3 1
174 9 2 -23.38680 20.53380 -11.34650 4 3 1
175 9 3 -15.67060 21.34070 -4.35883 4 3 1
176 9 4 -12.58590 21.40680 -1.33305 4 3 1
177 9 4 -10.90610 21.37290 2.47532 4 3 1
178 9 3 -6.71309 22.52360 1.97802 4 3 1
179 9 3 -20.70070 20.81380 -1.60077 4 3 1
180 9 5 -28.39660 15.65000 -15.74370 4 3 1
181 10 1 -25.27470 13.13400 -20.30460 4 3 1
182 10 1 -24.49650 12.29080 -17.11550 4 3 1
183 10 1 -22.45120 11.68610 -14.66100 4 3 1
184 10 1 -19.78260 10.62820 -13.03000 4 3 1
185 10 1 -16.87290 10.05220 -10.93630 4 3 1
186 10 1 -24.90190 9.88220 -19.48170 4 3 1
187 10 1 -23.21550 9.11274 -16.73150 4 3 1
188 10 1 -21.77070 8.31211 -13.59890 4 3 1
189 10 1 -19.32100 7.76313 -11.18560 4 3 1
190 10 1 -25.63920 15.37050 -18.02580 4 3 1
191 10 1 -17.59260 13.02730 -12.37040 4 3 1
192 10 1 -23.56020 6.65588 -19.01950 4 3 1
193 10 1 -19.01850 5.36710 -8.36606 4 3 1
194 10 2 -22.40410 5.37076 -11.16400 4 3 1
195 10 3 -14.46820 11.22710 -13.56990 4 3 1
196 10 4 -10.65530 13.13650 -14.75350 4 3 1
197 10 4 -7.94440 15.36470 -17.34410 4 3 1
198 10 3 -6.19102 18.84420 -15.66090 4 3 1
199 10 3 -15.59440 16.23420 -12.48780 4 3 1
200 10 5 -24.61850 5.28372 -21.93680 4 3 1
201 11 1 4.24555 -17.19390 -28.60850 5 14 13
202 11 1 1.52681 -17.30990 -27.03840 5 14 13
203 11 1 -1.47381 -16.78160 -25.40620 5 14 13
204 11 1 -4.59228 -16.99740 -24.26160 5 14 13
205 11 1 -7.68964 -17.71160 -22.74180 5 14 13
206 11 1 1.74661 -16.61390 -30.39230 5 14 13
207 11 1 -1.01975 -17.52770 -28.68390 5 14 13
208 11 1 -3.81324 -18.64630 -27.04740 5 14 13
209 11 1 -6.59644 -19.47810 -25.51600 5 14 13
210 11 1 4.36591 -16.76410 -25.22040 5 14 13
211 11 1 -5.43971 -15.03160 -21.63870 5 14 13
212 11 1 -1.10994 -16.91790 -32.11830 5 14 13
213 11 1 -9.08033 -21.41660 -26.25880 5 14 13
214 11 2 -5.63568 -21.49790 -28.56500 5 14 13
215 11 3 -10.18770 -17.54260 -19.47800 5 14 13
216 11 4 -12.49690 -17.51750 -15.75410 5 14 13
217 11 4 -15.86060 -15.16530 -13.97570 5 14 13
218 11 3 -15.16310 -12.05800 -11.19440 5 14 13
219 11 3 -7.79618 -13.55420 -19.38910 5 14 13
220 11 5 -0.72188 -19.32660 -35.02180 5 14 13
221 12 1 -40.05400 36.62300 -21.29160 11 15 14
222 12 1 -37.99470 38.45900 -19.49210 11 15 14
223 12 1 -35.62930 40.73970 -18.30060 11 15 14
224 12 1 -33.46870 43.05250 -18.74780 11 15 14
225 12 1 -31.55630 45.62540 -19.81210 11 15 14
226 12 1 -37.04930 35.46430 -20.64610 11 15 14
227 12 1 -34.92160 37.48170 -19.05900 11 15 14
228 12 1 -32.74240 39.99110 -19.88530 11 15 14
229 12 1 -30.39200 42.46610 -20.38440 11 15 14
230 12 1 -40.69380 39.78830 -20.80370 11 15 14
231 12 1 -33.50800 45.69750 -17.12520 11 15 14
232 12 1 -34.44420 34.02430 -19.07490 11 15 14
233 12 1 -28.22310 41.66040 -23.13250 11 15 14
234 12 2 -29.05340 39.14850 -19.67460 11 15 14
235 12 3 -32.46940 49.05930 -19.83880 11 15 14
236 12 4 -36.10720 51.37060 -20.75490 11 15 14
237 12 4 -38.54160 54.95050 -19.73540 11 15 14
238 12 3 -41.85010 57.38690 -20.58080 11 15 14
239 12 3 -30.56460 47.03700 -15.42150 11 15 14
240 12 5 -34.35680 30.61410 -20.40670 11 15 14
241 13 1 20.05220 51.15950 2.55061 6 6 15
242 13 1 20.97400 51.62940 -0.38759 6 6 15
243 13 1 21.01310 52.41120 -3.61974 6 6 15
244 13 1 20.33810 53.10170 -6.72072 6 6 15
245 13 1 19.88800 53.65040 -10.17700 6 6 15
246 13 1 21.53490 54.01470 1.83970 6 6 15
247 13 1 21.09170 54.90400 -1.44960 6 6 15
248 13 1 20.79360 55.67590 -4.65918 6 6 15
249 13 1 19.80490 56.10510 -7.88191 6 6 15
250 13 1 18.51580 49.36000 0.14610 6 6 15
251 13 1 18.37330 51.31400 -8.67297 6 6 15
252 13 1 21.66130 57.39510 0.56123 6 6 15
253 13 1 18.90610 58.65510 -9.95039 6 6 15
254 13 2 20.97890 -58.65110 -6.11275 6 6 15
255 13 3 21.27240 50.20480 -10.87750 6 6 15
256 13 4 20.20090 46.02730 -11.34280 6 6 15
257 13 4 19.20660 45.28580 -15.55570 6 6 15
258 13 3 18.73250 42.01690 -18.51740 6 6 15
259 13 3 17.05410 52.25150 -11.98930 6 6 15
260 13 5 23.91760 -58.83960 2.88710 6 6 15
261 14 1 -18.24040 -23.68610 25.14730 2 4 2
262 14 1 -17.79270 -25.77360 22.58310 2 4 2
263 14 1 -18.07060 -28.11200 19.86520 2 4 2
264 14 1 -17.31580 -30.72370 18.10400 2 4 2
265 14 1 -15.96320 -33.26770 16.31800 2 4 2
266 14 1 -20.47400 -25.81000 24.62260 2 4 2
267 14 1 -20.43870 -28.10760 22.28710 2 4 2
268 14 1 -19.95060 -30.68950 20.13730 2 4 2
269 14 1 -18.87930 -33.63320 18.46060 2 4 2
270 14 1 -15.20430 -24.21460 23.46510 2 4 2
271 14 1 -14.65080 -30.26120 16.37350 2 4 2
272 14 1 -23.32950 -27.74110 24.05820 2 4 2
273 14 1 -19.66730 -36.82660 19.16530 2 4 2
274 14 2 -22.24150 -33.68580 20.31190 2 4 2
275 14 3 -15.24160 -29.65640 17.50580 2 4 2
276 14 4 -14.84680 -25.78000 19.43440 2 4 2
277 14 4 -15.17800 -21.57650 20.31820 2 4 2
278 14 3 -12.25140 -18.75580 19.21770 2 4 2
279 14 3 -11.02260 -30.76220 15.99790 2 4 2
280 14 5 -26.13270 -28.34640 26.26710 2 4 2
281 15 1 -3.88632 -10.44880 -55.25940 1 1 3
282 15 1 -0.85615 -9.61946 -55.13970 1 1 3
283 15 1 2.32345 -7.70972 -54.90820 1 1 3
284 15 1 5.25658 -6.22104 -54.93370 1 1 3
285 15 1 8.50493 -5.60192 -55.45360 1 1 3
286 15 1 -2.36240 -9.49609 -52.22410 1 1 3
287 15 1 0.76836 -8.55347 -52.11870 1 1 3
288 15 1 3.81630 -6.98722 -52.17090 1 1 3
289 15 1 7.15490 -5.89766 -52.34870 1 1 3
290 15 1 -2.23947 -10.32580 -58.11990 1 1 3
291 15 1 6.24227 -5.16071 -57.92290 1 1 3
292 15 1 -0.65387 -9.51570 -49.20510 1 1 3
293 15 1 9.12178 -6.30004 -49.12170 1 1 3
294 15 2 5.00551 -5.67846 -49.13670 1 1 3
295 15 3 11.68200 -4.25887 -56.89690 1 1 3
296 15 4 14.64570 -2.64550 58.35160 1 1 3
297 15 4 18.85580 -1.61882 57.88190 1 1 3
298 15 3 21.87230 1.51005 58.25740 1 1 3
299 15 3 8.70489 -4.03894 57.33670 1 1 3
300 15 5 -3.16303 -10.05650 -46.62680 1 1 3
301 16 1 -6.65739 5.51519 22.87100 12 16 16
302 16 1 -7.03455 8.30361 20.92300 12 16 16
303 16 1 -8.31302 11.21620 19.64890 12 16 16
304 16 1 -9.93678 14.07420 18.69680 12 16 16
305 16 1 -11.75380 16.74730 17.97270 12 16 16
306 16 1 -8.61868 5.42717 20.18550 12 16 16
307 16 1 -9.83005 8.09613 18.54890 12 16 16
308 16 1 -10.92580 11.13640 17.63910 12 16 16
309 16 1 -11.95720 13.96550 15.99430 12 16 16
310 16 1 -4.39752 7.86705 22.84840 12 16 16
311 16 1 -8.44844 17.12050 18.09850 12 16 16
312 16 1 -11.11530 5.17549 17.82880 12 16 16
313 16 1 -14.18190 14.16080 13.47730 12 16 16
314 16 2 -11.96470 10.77450 14.03720 12 16 16
315 16 3 -9.58617 16.17860 21.12140 12 16 16
316 16 4 -6.70230 13.59180 23.05260 12 16 16
317 16 4 -7.17581 9.64167 24.90640 12 16 16
318 16 3 -8.31911 9.85360 29.03480 12 16 16
319 16 3 -10.20390 20.36590 19.41940 12 16 16
320 16 5 -10.49950 1.88726 18.32530 12 16 16
321 17 1 -21.91400 -16.09810 -46.87800 1 5 17
322 17 1 -23.98080 -17.53190 -44.59540 1 5 17
323 17 1 -25.70070 -19.87090 -42.78790 1 5 17
324 17 1 -26.38950 -22.82310 -41.53580 1 5 17
325 17 1 -27.76080 -25.97890 -40.31600 1 5 17
326 17 1 -20.91980 -16.16060 -43.53010 1 5 17
327 17 1 -22.96740 -18.66350 -41.65290 1 5 17
328 17 1 -24.72270 -20.92980 -39.71620 1 5 17
329 17 1 -25.82040 -23.81430 -38.36370 1 5 17
330 17 1 -25.12030 -16.01180 -47.26780 1 5 17
331 17 1 -28.63860 -24.54520 -43.16060 1 5 17
332 17 1 -20.76880 -16.56300 -40.09400 1 5 17
333 17 1 -25.03170 -25.66020 -35.52980 1 5 17
334 17 2 -24.43450 -21.44770 -35.92070 1 5 17
335 17 3 -31.37970 -25.37060 -40.20510 1 5 17
336 17 4 -34.25750 -24.59680 -43.36250 1 5 17
337 17 4 -35.26210 -25.23360 -47.33750 1 5 17
338 17 3 -33.66140 -29.35020 -47.55080 1 5 17
339 17 3 -30.43290 -27.63560 -44.56060 1 5 17
340 17 5 -19.81780 -14.33910 -37.43950 1 5 17
341 18 1 44.35190 17.19740 25.31890 13 17 18
342 18 1 41.77280 17.74990 23.02460 13 17 18
343 18 1 39.96160 17.33270 20.00310 13 17 18
344 18 1 38.46370 17.30260 17.24640 13 17 18
345 18 1 36.27470 17.66830 14.60890 13 17 18
346 18 1 43.87100 20.28860 23.69110 13 17 18
347 18 1 42.33580 20.04290 20.58130 13 17 18
348 18 1 40.40750 20.13850 17.89560 13 17 18
349 18 1 39.64780 18.73610 14.79160 13 17 18
350 18 1 41.81750 15.24210 25.11010 13 17 18
351 18 1 36.27480 14.80290 16.45520 13 17 18
352 18 1 43.81090 22.75990 21.65390 13 17 18
353 18 1 39.40510 20.96730 12.20380 13 17 18
354 18 2 42.52180 20.95260 15.14250 13 17 18
355 18 3 34.13590 17.51600 11.55120 13 17 18
356 18 4 31.42900 16.88910 8.05736 13 17 18
357 18 4 27.43390 17.79180 7.18332 13 17 18
358 18 3 23.63160 16.82840 5.60552 13 17 18
359 18 3 34.19130 12.31910 14.47300 13 17 18
360 18 5 46.70540 23.15830 23.62290 13 17 18
361 19 1 -5.64118 -18.80680 -53.32030 1 1 19
362 19 1 -2.49438 -17.81700 -52.85350 1 1 19
363 19 1 0.61169 -16.86660 -52.44270 1 1 19
364 19 1 3.41522 -15.32180 -52.25890 1 1 19
365 19 1 6.39985 -13.66630 -52.30540 1 1 19
366 19 1 -3.55092 -18.67000 -55.97480 1 1 19
367 19 1 -0.42130 -17.80990 -55.38250 1 1 19
368 19 1 2.17458 -15.90540 -55.22300 1 1 19
369 19 1 5.05718 -14.42100 -55.19760 1 1 19
370 19 1 -5.14637 -16.95260 -50.74060 1 1 19
371 19 1 4.72458 -14.08440 -49.45890 1 1 19
372 19 1 -1.21548 -19.77980 -57.91210 1 1 19
373 19 1 6.08876 -11.91310 -57.16870 1 1 19
374 19 2 3.03286 -14.44330 -58.61920 1 1 19
375 19 3 9.45409 -12.20940 -50.53580 1 1 19
376 19 4 9.64983 -10.09560 -47.00250 1 1 19
377 19 4 8.20630 -6.97147 -44.55540 1 1 19
378 19 3 4.24647 -7.00532 -42.79160 1 1 19
379 19 3 6.70193 -17.51280 -49.68270 1 1 19
380 19 5 -0.67132 -23.57770 -57.74420 1 1 19
381 20 1 7.75718 -2.42781 -56.60410 1 1 3
382 20 1 5.90694 -2.54714 -53.91330 1 1 3
383 20 1 3.37912 -3.32748 -51.69720 1 1 3
384 20 1 1.10072 -4.46838 -49.59790 1 1 3
385 20 1 -1.17625 -5.48821 -47.43300 1 1 3
386 20 1 4.43920 -1.71288 -56.92190 1 1 3
387 20 1 2.53215 -3.39674 -54.91200 1 1 3
388 20 1 0.61443 -4.61719 -52.91290 1 1 3
389 20 1 -1.71369 -5.88636 -50.85010 1 1 3
390 20 1 9.15580 -2.39984 -53.55810 1 1 3
391 20 1 1.84882 -4.72724 -46.19460 1 1 3
392 20 1 1.42124 -2.21776 -58.12150 1 1 3
393 20 1 -4.85320 -7.13863 -51.02390 1 1 3
394 20 2 -2.74379 -5.93799 -54.62460 1 1 3
395 20 3 0.13090 -8.04161 -44.97000 1 1 3
396 20 4 0.07120 -8.50786 -40.69050 1 1 3
397 20 4 -0.43249 -4.93761 -38.55690 1 1 3
398 20 3 -0.96992 -1.25273 -36.31380 1 1 3
399 20 3 1.02780 -3.37673 -42.57010 1 1 3
400 20 5 1.31884 -3.09220 56.05090 1 1 3
401 21 1 18.93230 44.18300 3.79762 6 6 20
402 21 1 16.79450 46.33590 3.12278 6 6 20
403 21 1 14.33380 48.54500 1.85283 6 6 20
404 21 1 11.76910 50.57020 1.39537 6 6 20
405 21 1 9.64475 53.07790 0.38232 6 6 20
406 21 1 16.04450 43.07990 2.48620 6 6 20
407 21 1 13.91300 45.35250 1.34040 6 6 20
408 21 1 11.82320 47.76240 -0.35307 6 6 20
409 21 1 10.05990 50.18470 -1.41388 6 6 20
410 21 1 19.75890 47.35170 4.30361 6 6 20
411 21 1 11.33000 53.29070 3.35192 6 6 20
412 21 1 13.66230 42.52940 -0.12957 6 6 20
413 21 1 7.61134 50.64950 -3.76837 6 6 20
414 21 2 9.10042 46.67730 -2.66827 6 6 20
415 21 3 11.10380 56.61710 -0.17914 6 6 20
416 21 4 12.48630 -58.12300 2.74189 6 6 20
417 21 4 14.47700 -55.43590 5.21673 6 6 20
418 21 3 17.73470 -53.41940 7.57496 6 6 20
419 21 3 9.14070 56.07600 4.19258 6 6 20
420 21 5 14.85100 39.15550 -0.35993 6 6 20
421 22 1 -38.13910 -43.84790 48.08010 2 7 4
422 22 1 -41.26090 -43.02340 47.62050 2 7 4
423 22 1 -44.54760 -42.31430 46.86870 2 7 4
424 22 1 -47.79130 -41.99440 46.12330 2 7 4
425 22 1 -50.93850 -41.45200 45.40340 2 7 4
426 22 1 -38.61060 -41.65490 45.67110 2 7 4
427 22 1 -41.98420 -40.86140 45.10210 2 7 4
428 22 1 -45.22070 -40.85450 43.98750 2 7 4
429 22 1 -48.48170 -39.92200 43.62560 2 7 4
430 22 1 -40.47170 -44.97840 50.20250 2 7 4
431 22 1 -50.18350 -42.92520 48.10910 2 7 4
432 22 1 -39.72670 -38.77970 44.49900 2 7 4
433 22 1 -50.05850 -37.86640 41.71500 2 7 4
434 22 2 -45.96260 -38.88700 40.79340 2 7 4
435 22 3 -53.16560 -43.57790 47.90500 2 7 4
436 22 4 -56.26220 -46.78330 48.25580 2 7 4
437 22 4 -58.49830 -49.50990 45.98410 2 7 4
438 22 3 57.42060 -52.71420 47.67930 2 7 4
439 22 3 -50.89260 -41.26290 51.22380 2 7 4
440 22 5 -37.98160 -37.11820 42.12970 2 7 4
441 23 1 -23.78700 19.62460 -38.47760 4 18 21
442 23 1 -22.66990 18.58590 -35.60070 4 18 21
443 23 1 -21.38520 18.35990 -32.47680 4 18 21
444 23 1 -19.90710 18.44860 -29.39700 4 18 21
445 23 1 -18.44310 18.75740 -26.31160 4 18 21
446 23 1 -20.48440 19.07620 -38.14150 4 18 21
447 23 1 -19.66130 19.86480 -35.12500 4 18 21
448 23 1 -18.64090 19.97540 -32.07210 4 18 21
449 23 1 -17.14790 20.26330 -29.04490 4 18 21
450 23 1 -26.03780 18.20380 -36.33600 4 18 21
451 23 1 -21.00350 16.70470 -26.67930 4 18 21
452 23 1 -17.21150 19.87410 -37.29680 4 18 21
453 23 1 -14.80660 22.61470 -27.84160 4 18 21
454 23 2 -15.05220 21.43000 -32.04670 4 18 21
455 23 3 -18.79940 15.43020 -24.45950 4 18 21
456 23 4 -21.36670 13.26420 -21.86900 4 18 21
457 23 4 -22.88830 9.34602 -22.64450 4 18 21
458 23 3 -25.19380 7.66299 -25.70780 4 18 21
459 23 3 -23.46170 19.13440 -24.60940 4 18 21
460 23 5 -15.97890 16.70440 -38.30290 4 18 21
461 24 1 -34.18130 -10.86930 -22.02920 5 19 22
462 24 1 -32.38590 -12.14110 -19.97890 5 19 22
463 24 1 -29.78000 -13.27370 -17.86770 5 19 22
464 24 1 -27.22640 -15.15190 -16.76400 5 19 22
465 24 1 -24.84420 -17.42710 -16.19320 5 19 22
466 24 1 -35.46690 -12.47170 -19.36770 5 19 22
467 24 1 -33.12020 -14.10360 -17.39150 5 19 22
468 24 1 -30.48140 -15.85330 -15.99040 5 19 22
469 24 1 -28.03470 -18.15510 -15.41330 5 19 22
470 24 1 -31.35620 -12.00910 -23.19980 5 19 22
471 24 1 -24.19330 -14.49280 -17.80730 5 19 22
472 24 1 -36.30330 -13.93450 -16.48010 5 19 22
473 24 1 -28.09250 -20.98080 -13.95070 5 19 22
474 24 2 -31.65210 -19.38780 -15.39020 5 19 22
475 24 3 -21.51380 -17.06090 -14.70870 5 19 22
476 24 4 -19.05720 -19.36220 -11.68690 5 19 22
477 24 4 -15.66040 -17.15920 -10.26480 5 19 22
478 24 3 -11.73880 -17.15030 -9.21556 5 19 22
479 24 3 -20.40320 -15.01670 -18.79670 5 19 22
480 24 5 -39.90520 -15.10460 -17.69470 5 19 22
481 25 1 40.89790 -20.19530 -42.52860 3 2 23
482 25 1 42.87100 -22.81300 -43.58720 3 2 23
483 25 1 44.71450 -25.46250 -44.54960 3 2 23
484 25 1 45.41090 -28.13390 -46.46640 3 2 23
485 25 1 46.92150 -30.88420 -47.75710 3 2 23
486 25 1 39.81250 -23.26130 -42.29530 3 2 23
487 25 1 41.72340 -25.81580 -43.14450 3 2 23
488 25 1 43.61180 -28.55110 -43.74490 3 2 23
489 25 1 45.71840 -31.05930 -44.77760 3 2 23
490 25 1 44.01360 -19.55060 -43.90990 3 2 23
491 25 1 46.87810 -28.06340 -49.40610 3 2 23
492 25 1 38.53420 -26.50780 -42.45890 3 2 23
493 25 1 45.59820 -34.34130 -43.81490 3 2 23
494 25 2 43.97610 -31.50460 -41.38210 3 2 23
495 25 3 46.73470 -33.27030 -50.74280 3 2 23
496 25 4 43.81020 -34.44750 -53.54190 3 2 23
497 25 4 41.27460 -35.07900 -56.73280 3 2 23
498 25 3 37.98350 -35.52710 58.47830 3 2 23
499 25 3 49.91550 -28.51030 -51.96660 3 2 23
500 25 5 35.27790 -25.23300 -41.96830 3 2 23
501 26 1 49.56590 14.72770 -57.86480 14 20 24
502 26 1 48.22770 14.63390 56.91800 14 20 24
503 26 1 46.59270 14.20270 54.25520 14 20 24
504 26 1 45.04960 12.13490 51.57220 14 20 24
505 26 1 43.08440 10.66450 49.52020 14 20 24
506 26 1 51.67600 15.03430 57.05910 14 20 24
507 26 1 49.99820 13.43430 54.45720 14 20 24
508 26 1 48.18960 12.37930 51.85490 14 20 24
509 26 1 46.74040 10.80610 49.17780 14 20 24
510 26 1 46.78960 16.15320 -58.78400 14 20 24
511 26 1 42.45170 10.40550 52.92500 14 20 24
512 26 1 53.41430 13.03080 54.84500 14 20 24
513 26 1 47.69720 8.51010 46.66800 14 20 24
514 26 2 50.59590 9.80937 49.83240 14 20 24
515 26 3 39.53680 12.11130 48.86220 14 20 24
516 26 4 36.42050 13.55180 46.24920 14 20 24
517 26 4 32.18320 14.67780 44.89320 14 20 24
518 26 3 29.33910 17.61790 45.89920 14 20 24
519 26 3 40.33150 8.11666 50.87560 14 20 24
520 26 5 57.17510 13.85640 54.66000 14 20 24
521 27 1 -7.58772 -13.89190 -46.45620 1 1 25
522 27 1 -7.55431 -14.37270 -49.80480 1 1 25
523 27 1 -7.44528 -14.76720 -53.02260 1 1 25
524 27 1 -7.06711 -16.39150 -55.87750 1 1 25
525 27 1 -7.22660 -16.87410 58.68280 1 1 25
526 27 1 -4.71792 -13.52580 -48.25450 1 1 25
527 27 1 -4.45675 -13.70840 -51.55340 1 1 25
528 27 1 -4.37637 -14.83470 -54.61750 1 1 25
529 27 1 -4.41816 -15.99070 -57.96600 1 1 25
530 27 1 -10.45270 -14.32370 -48.28670 1 1 25
531 27 1 -9.77157 -17.96160 -57.25390 1 1 25
532 27 1 -1.87991 -12.72710 -50.03810 1 1 25
533 27 1 -1.69563 -15.88900 57.62780 1 1 25
534 27 2 -1.29703 -14.15860 -56.38950 1 1 25
535 27 3 -8.90015 -16.55110 55.17610 1 1 25
536 27 4 -11.80720 -16.64370 51.68430 1 1 25
537 27 4 -15.81100 -16.33900 50.04290 1 1 25
538 27 3 -20.02460 -17.25840 49.84690 1 1 25
539 27 3 -11.34180 -20.33900 58.05430 1 1 25
540 27 5 0.46522 -15.25270 -48.92940 1 1 25
541 28 1 -23.62090 -10.47120 29.35150 2 4 26
542 28 1 -22.44400 -13.21570 28.49300 2 4 26
543 28 1 -20.78870 -15.96870 27.52480 2 4 26
544 28 1 -18.77690 -18.08620 26.75400 2 4 26
545 28 1 -15.90030 -19.47290 25.56180 2 4 26
546 28 1 -22.68170 -12.51860 31.72640 2 4 26
547 28 1 -21.02050 -15.39000 30.66470 2 4 26
548 28 1 -18.97600 -17.76550 29.96060 2 4 26
549 28 1 -17.03550 -19.90880 28.72610 2 4 26
550 28 1 -23.59550 -11.31360 26.06200 2 4 26
551 28 1 -18.32440 -18.31010 23.55160 2 4 26
552 28 1 -21.34000 -14.84580 34.02410 2 4 26
553 28 1 -13.95990 -20.91860 29.90880 2 4 26
554 28 2 -17.47050 -20.11530 32.44190 2 4 26
555 28 3 -16.41680 -17.50660 22.13200 2 4 26
556 28 4 -19.76080 -14.73260 21.95360 2 4 26
557 28 4 -22.61010 -11.92830 20.86800 2 4 26
558 28 3 -25.16310 -8.65643 21.19260 2 4 26
559 28 3 -19.59830 -21.30220 21.58810 2 4 26
560 28 5 -21.43780 -12.13750 36.19860 2 4 26
561 29 1 -37.22650 25.21710 7.54983 15 21 27
562 29 1 -38.97870 22.29040 7.40144 15 21 27
563 29 1 -40.72910 19.56010 7.04257 15 21 27
564 29 1 -42.23520 16.48680 6.63184 15 21 27
565 29 1 -44.23500 13.82990 6.17845 15 21 27
566 29 1 -39.73910 24.62350 9.82847 15 21 27
567 29 1 -41.67170 21.57140 9.14278 15 21 27
568 29 1 -42.78470 18.44930 9.34810 15 21 27
569 29 1 -44.38820 15.35750 9.21305 15 21 27
570 29 1 -36.19280 22.72670 5.97322 15 21 27
571 29 1 -42.20560 14.78360 3.69565 15 21 27
572 29 1 -42.08900 23.93000 11.99710 15 21 27
573 29 1 -46.98570 14.52120 11.11330 15 21 27
574 29 2 -44.30270 17.21930 12.70070 15 21 27
575 29 3 -43.71440 10.70240 4.23905 15 21 27
576 29 4 -42.99900 7.76258 0.67683 15 21 27
577 29 4 -41.68780 3.67657 0.41173 15 21 27
578 29 3 -38.20350 3.02075 2.76141 15 21 27
579 29 3 -39.79690 11.85140 2.67324 15 21 27
580 29 5 -41.43460 26.96660 13.82260 15 21 27
581 30 1 -9.88958 -13.25710 -38.36980 1 1 28
582 30 1 -9.71723 -14.69710 -41.23090 1 1 28
583 30 1 -8.93186 -16.38470 -44.12350 1 1 28
584 30 1 -8.23534 -17.55830 -47.06230 1 1 28
585 30 1 -7.67463 -19.23630 -49.69980 1 1 28
586 30 1 -7.41532 -12.30870 -40.24820 1 1 28
587 30 1 -6.60983 -14.54670 -42.47750 1 1 28
588 30 1 -5.71541 -16.97050 -44.82110 1 1 28
589 30 1 -5.27497 -18.86170 -47.46700 1 1 28
590 30 1 -12.68860 -14.00870 -40.07290 1 1 28
591 30 1 -10.92250 -18.03680 -49.39430 1 1 28
592 30 1 -4.87712 -11.48740 -41.98890 1 1 28
593 30 1 -2.97251 -21.51330 -47.16060 1 1 28
594 30 2 -2.19180 -17.83270 -45.42180 1 1 28
595 30 3 -10.59770 -17.63080 -51.70680 1 1 28
596 30 4 -12.52810 -13.84720 -53.07890 1 1 28
597 30 4 -13.64670 -10.68610 -55.63580 1 1 28
598 30 3 -16.34470 -7.21516 -55.42750 1 1 28
599 30 3 -13.29750 -21.09760 -50.54320 1 1 28
600 30 5 -3.01392 -12.07880 -38.83430 1 1 28
601 31 1 -43.12040 6.77191 -47.24420 16 22 29
602 31 1 -43.57730 10.09590 -46.99360 16 22 29
603 31 1 -44.40690 13.43420 -46.60860 16 22 29
604 31 1 -44.79070 17.03800 -47.01900 16 22 29
605 31 1 -44.90480 20.41740 -47.49880 16 22 29
606 31 1 -41.09270 8.91535 -48.93020 16 22 29
607 31 1 -41.44080 12.23360 -47.93660 16 22 29
608 31 1 -41.79130 15.60200 -47.19730 16 22 29
609 31 1 -41.93910 18.79200 -48.00090 16 22 29
610 31 1 -46.29720 7.66740 -46.87610 16 22 29
611 31 1 -47.74470 18.46510 -47.85300 16 22 29
612 31 1 -38.92170 11.38480 -49.99910 16 22 29
613 31 1 -39.96310 21.09680 -49.36180 16 22 29
614 31 2 -38.37280 17.37200 -48.13670 16 22 29
615 31 3 -46.24280 17.10780 -48.36680 16 22 29
616 31 4 -47.92370 14.72700 -45.22160 16 22 29
617 31 4 -46.48390 14.68900 -41.16870 16 22 29
618 31 3 -46.51070 12.06990 -37.45750 16 22 29
619 31 3 -48.80410 22.01510 -48.61280 16 22 29
620 31 5 -36.16990 9.70321 -51.70980 16 22 29
621 32 1 -48.07370 -17.89890 58.72910 3 23 30
622 32 1 -51.08990 -19.46650 58.38940 3 23 30
623 32 1 -54.11830 -21.21600 -58.81810 3 23 30
624 32 1 -57.23030 -22.78500 -58.85890 3 23 30
625 32 1 58.38970 -25.01520 -57.65730 3 23 30
626 32 1 -50.61380 -16.77090 -57.36830 3 23 30
627 32 1 -53.68540 -18.26980 -57.56600 3 23 30
628 32 1 -56.73710 -19.77540 -57.11960 3 23 30
629 32 1 58.27010 -21.74600 -56.72130 3 23 30
630 32 1 -48.10570 -20.62910 56.91640 3 23 30
631 32 1 -57.55530 -25.50820 57.12080 3 23 30
632 32 1 -53.12690 -16.04920 -55.22510 3 23 30
633 32 1 56.01140 -21.30010 -54.21180 3 23 30
634 32 2 58.41140 -18.08900 -55.46110 3 23 30
635 32 3 -58.43860 -28.51450 -56.28400 3 23 30
636 32 4 -56.44220 -32.27040 -56.57530 3 23 30
637 32 4 -56.07860 -34.92300 57.71760 3 23 30
638 32 3 -55.81150 -37.28900 54.15990 3 23 30
639 32 3 -56.91720 -29.22530 57.41950 3 23 30
640 32 5 -50.46100 -14.14910 -54.19460 3 23 30
641 33 1 -25.01740 7.10020 -8.04253 4 3 1
642 33 1 -22.72490 9.23793 -9.04442 4 3 1
643 33 1 -21.13710 12.03230 -9.63321 4 3 1
644 33 1 -19.52950 15.26000 -9.81266 4 3 1
645 33 1 -18.35610 18.56670 -9.83982 4 3 1
646 33 1 -25.03110 8.29023 -11.18330 4 3 1
647 33 1 -23.74220 11.30510 -11.32820 4 3 1
648 33 1 -22.16550 14.24500 -11.51750 4 3 1
649 33 1 -20.52050 17.18920 -12.25720 4 3 1
650 33 1 -21.94670 7.08837 -6.67536 4 3 1
651 33 1 -17.19320 16.45240 -7.49750 4 3 1
652 33 1 -25.58770 9.78554 -13.99150 4 3 1
653 33 1 -21.03480 19.76280 -14.47530 4 3 1
654 33 2 -22.93880 16.05430 -15.03410 4 3 1
655 33 3 -15.22760 20.69680 -9.55723 4 3 1
656 33 4 -12.61660 23.11350 -7.74373 4 3 1
657 33 4 -8.45288 22.91160 -6.80903 4 3 1
658 33 3 -6.75944 24.91760 -3.24674 4 3 1
659 33 3 -13.66160 16.18300 -6.62901 4 3 1
660 33 5 -28.48150 7.90364 -14.26340 4 3 1
661 34 1 54.81890 -50.18850 -48.65940 2 24 31
662 34 1 57.17450 -48.28770 -47.96130 2 24 31
663 34 1 -57.49160 -46.70070 -47.12160 2 24 31
664 34 1 -54.77870 -44.89160 -46.31170 2 24 31
665 34 1 -51.73450 -43.45550 -45.64160 2 24 31
666 34 1 56.00330 -47.78740 -50.83720 2 24 31
667 34 1 58.70910 -45.93540 -49.99510 2 24 31
668 34 1 -56.84380 -43.79670 -48.82500 2 24 31
669 34 1 -53.93570 -42.32520 -48.09990 2 24 31
670 34 1 56.25500 -50.74100 -45.77680 2 24 31
671 34 1 -53.83320 -44.24530 -43.09060 2 24 31
672 34 1 56.81020 -44.98560 -52.50430 2 24 31
673 34 1 -51.95450 -40.29790 -49.86540 2 24 31
674 34 2 -55.68160 -41.11990 -51.17170 2 24 31
675 34 3 -48.02610 -43.16160 -44.93560 2 24 31